7
Properties=species:S:1:pos:R:3:masses:R:1:momenta:R:3:forces:R:3 100.=T energy=-11.13822796021084 pbc="F F F"
Ar       7.39334707      -2.69864839       0.00000000       1.00000000       0.00000000       0.00000000       0.00000000      11.12236936      -0.24930814       0.00000000
Ar       7.82267652      -0.73909073       0.00000000       1.00000000       0.00000000       0.00000000       0.00000000      -2.80584445       5.84908434       0.00000000
Ar       7.10149698      -1.61647666       0.00000000       1.00000000       0.00000000       0.00000000       0.00000000      -0.05891713       2.71327911       0.00000000
Ar       8.23571842      -1.70978250       0.00000000       1.00000000       0.00000000       0.00000000       0.00000000       0.26538929      -8.40368411       0.00000000
Ar       6.73725208      -0.51115362       0.00000000       1.00000000       0.00000000       0.00000000       0.00000000       0.14712695      -1.41968138       0.00000000
Ar       6.37771195      -2.46404374       0.00000000       1.00000000       0.00000000       0.00000000       0.00000000     -10.52754132       4.19565912       0.00000000
Ar       5.99006315      -1.33853750       0.00000000       1.00000000       0.00000000       0.00000000       0.00000000       1.85741731      -2.68534894       0.00000000
